148
Lattice="10.509 0.0 0.0 0.0 8.8051 0.0 0.0 0.0 33.4828" Properties=species:S:1:pos:R:3:masses:R:1 energy=-1741.2302311560125 label=3099 n_visit=1 pbc="T T F"
Mn       2.57459991       0.00000000       0.73327332       1.00000000
Mn       1.00875891       0.00000000       3.13633388       1.00000000
Mn       4.69741791       0.00000000       5.53972926       1.00000000
Mn       3.10463342       8.80011619       7.90194992       1.00000000
Mn       1.46476831       8.78798117      10.19797325       1.00000000
Mn       9.10481488       8.70214711      12.83964071       1.00000000
Mn       5.20184991       2.20127500       0.73327332       1.00000000
Mn       3.63600891       2.20127500       3.13633388       1.00000000
Mn       2.07016791       2.20127500       5.53972926       1.00000000
Mn       0.46911299       2.20885434       7.88676303       1.00000000
Mn       4.16373896       2.43689456      10.62271789       1.00000000
Mn       1.26222820       1.50419369      12.47868599       1.00000000
O        3.69990363       1.34304190       1.46621181       1.00000000
O        2.13406263       1.34304190       3.86960720       1.00000000
O        0.56822163       1.34304190       6.27300258       1.00000000
O        4.29800379       1.17387956       9.01659972       1.00000000
O        2.80366072       0.96950082      11.23571574       1.00000000
O        0.02378994       4.20007238      19.01993025       1.00000000
O        1.07265363       0.85823310       1.46621181       1.00000000
O        4.76131263       0.85823310       3.86960720       1.00000000
O        3.19547163       0.85823310       6.27300258       1.00000000
O        1.66561628       0.93651267       8.60900427       1.00000000
O        0.13179265       0.89688556      11.11259368       1.00000000
O        1.59977623       2.47551821      14.03055556       1.00000000
O        1.44929619       3.05950810       0.00000000       1.00000000
O        5.13795519       3.05950810       2.40339538       1.00000000
O        3.57211419       3.05950810       4.80645594       1.00000000
O        1.97748261       3.09249478       7.18427043       1.00000000
O        0.32931081       3.13390127       9.46540940       1.00000000
O        3.96918769       3.16460076      12.35154747       1.00000000
O        4.07654619       3.54431690       0.00000000       1.00000000
O        2.51070519       3.54431690       2.40339538       1.00000000
O        0.94486419       3.54431690       4.80645594       1.00000000
O        4.61470727       3.48487934       7.23357215       1.00000000
O        3.03607258       3.45723415       9.59605581       1.00000000
O        1.36302080       3.14351259      11.63108756       1.00000000
Mn       7.82909991       0.00000000       0.73327332       1.00000000
Mn       6.26325891       0.00000000       3.13633388       1.00000000
Mn       9.95191791       0.00000000       5.53972926       1.00000000
Mn       8.37228460       0.01216891       7.94325832       1.00000000
Mn       6.96859860       0.07478464      10.47107302       1.00000000
Mn       4.23673854       8.68015163      10.63795645       1.00000000
Mn      10.45634991       2.20127500       0.73327332       1.00000000
Mn       8.89050891       2.20127500       3.13633388       1.00000000
Mn       7.32466791       2.20127500       5.53972926       1.00000000
Mn       5.74865021       2.18120901       8.02906287       1.00000000
Mn       9.42297553       2.26715161      10.35414085       1.00000000
Mn       6.60924408       1.23734193      13.01474645       1.00000000
O        8.95440363       1.34304190       1.46621181       1.00000000
O        7.38856263       1.34304190       3.86960720       1.00000000
O        5.82272163       1.34304190       6.27300258       1.00000000
O        9.50620343       1.32664334       8.70974076       1.00000000
O        8.09316369       1.31342400      11.27213219       1.00000000
O        6.69550425       3.99669892      18.79137653       1.00000000
O        6.32715363       0.85823310       1.46621181       1.00000000
O       10.01581263       0.85823310       3.86960720       1.00000000
O        8.44997163       0.85823310       6.27300258       1.00000000
O        6.90369247       0.87828459       8.79703377       1.00000000
O        5.46134853       1.06954065      11.42641994       1.00000000
O        8.28048578       1.28055823      14.08189411       1.00000000
O        6.70379619       3.05950810       0.00000000       1.00000000
O       10.39245519       3.05950810       2.40339538       1.00000000
O        8.82661419       3.05950810       4.80645594       1.00000000
O        7.21905272       3.04774300       7.23955943       1.00000000
O        5.65002217       3.13886794       9.78247591       1.00000000
O        9.43048469       3.41103255      12.11369138       1.00000000
O        9.33104619       3.54431690       0.00000000       1.00000000
O        7.76520519       3.54431690       2.40339538       1.00000000
O        6.19936419       3.54431690       4.80645594       1.00000000
O        9.83810286       3.52310823       7.17309000       1.00000000
O        8.27600934       3.52019997       9.61414481       1.00000000
O        6.29452101       2.99991431      13.80390668       1.00000000
Mn       2.57459991       4.40255000       0.73327332       1.00000000
Mn       1.00875891       4.40255000       3.13633388       1.00000000
Mn       4.69741791       4.40255000       5.53972926       1.00000000
Mn       3.16026076       4.39461112       7.92930188       1.00000000
Mn       1.51622953       4.32959290      10.20542493       1.00000000
Mn       9.85452956       5.23523946      12.49345742       1.00000000
Mn       5.20184991       6.60382500       0.73327332       1.00000000
Mn       3.63600891       6.60382500       3.13633388       1.00000000
Mn       2.07016791       6.60382500       5.53972926       1.00000000
Mn       0.48561452       6.59730816       7.89715728       1.00000000
Mn       4.13879362       6.15769201      10.64570732       1.00000000
Mn       1.27281537       4.26183569      19.09322363       1.00000000
O        3.69990363       5.74559190       1.46621181       1.00000000
O        2.13406263       5.74559190       3.86960720       1.00000000
O        0.56822163       5.74559190       6.27300258       1.00000000
O        4.32244017       5.61628125       8.81610950       1.00000000
O        2.61884920       5.37458612      11.37431135       1.00000000
O        0.57871985       4.88470572      13.69034341       1.00000000
O        1.07265363       5.26078310       1.46621181       1.00000000
O        4.76131263       5.26078310       3.86960720       1.00000000
O        3.19547163       5.26078310       6.27300258       1.00000000
O        1.68951013       5.32132765       8.67210742       1.00000000
O        0.11351906       5.29698767      10.86078167       1.00000000
O        3.56075691       5.07799802      14.00543120       1.00000000
O        1.44929619       7.46205810       0.00000000       1.00000000
O        5.13795519       7.46205810       2.40339538       1.00000000
O        3.57211419       7.46205810       4.80645594       1.00000000
O        1.98939958       7.48773252       7.19102001       1.00000000
O        0.37726935       7.49225325       9.54799769       1.00000000
O        4.11607673       7.45963077      11.91239018       1.00000000
O        4.07654619       7.94686690       0.00000000       1.00000000
O        2.51070519       7.94686690       2.40339538       1.00000000
O        0.94486419       7.94686690       4.80645594       1.00000000
O        4.61581119       7.94522336       7.24817559       1.00000000
O        2.98325408       7.79137517       9.61380920       1.00000000
O        0.26294990       0.31180119      13.63925385       1.00000000
Mn       7.82909991       4.40255000       0.73327332       1.00000000
Mn       6.26325891       4.40255000       3.13633388       1.00000000
Mn       9.95191791       4.40255000       5.53972926       1.00000000
Mn       8.35870785       4.39898330       7.91095688       1.00000000
Mn       6.84432572       4.44796385      10.32848027       1.00000000
Mn       5.03360819       4.38159610      13.38983465       1.00000000
Mn      10.45634991       6.60382500       0.73327332       1.00000000
Mn       8.89050891       6.60382500       3.13633388       1.00000000
Mn       7.32466791       6.60382500       5.53972926       1.00000000
Mn       5.72615320       6.60150063       7.97038291       1.00000000
Mn       9.44616470       6.61125895      10.26853700       1.00000000
Mn       6.98087343       6.19221313      12.71302402       1.00000000
O        8.95440363       5.74559190       1.46621181       1.00000000
O        7.38856263       5.74559190       3.86960720       1.00000000
O        5.82272163       5.74559190       6.27300258       1.00000000
O        9.48022372       5.76411549       8.61743951       1.00000000
O        8.02630778       5.69227160      11.13028608       1.00000000
O        6.00753326       5.74816070      14.11559814       1.00000000
O        6.32715363       5.26078310       1.46621181       1.00000000
O       10.01581263       5.26078310       3.86960720       1.00000000
O        8.44997163       5.26078310       6.27300258       1.00000000
O        6.89946487       5.31987525       8.66049372       1.00000000
O        5.58300610       5.18229027      11.62378760       1.00000000
O        8.41460067       5.28999283      13.62989194       1.00000000
O        6.70379619       7.46205810       0.00000000       1.00000000
O       10.39245519       7.46205810       2.40339538       1.00000000
O        8.82661419       7.46205810       4.80645594       1.00000000
O        7.22081567       7.48769667       7.22439560       1.00000000
O        5.61587200       7.57772920       9.89038859       1.00000000
O        9.78611268       7.13973349      12.12470350       1.00000000
O        9.33104619       7.94686690       0.00000000       1.00000000
O        7.76520519       7.94686690       2.40339538       1.00000000
O        6.19936419       7.94686690       4.80645594       1.00000000
O        9.86450833       7.94699573       7.20122129       1.00000000
O        8.31228676       7.94867003       9.66823980       1.00000000
O        7.21843662       8.18564400      12.45966599       1.00000000
Rh      10.19825922       2.04524047      14.35855165       1.00000000
Rh       2.26145241       4.12592575      13.00578439       1.00000000
Rh       8.24650997       3.33141363      13.62253431       1.00000000
Rh       8.28379304       4.07959826      18.87528382       1.00000000
