8
Lattice="6.355311558690175 0.4741600530496057 0.3352198917831196 1.2491747257405657 4.295932350721323 0.5558035714072158 2.9826116412944375 0.6523823860247153 6.537831622824733" Properties=species:S:1:pos:R:3:momenta:R:3:forces:R:3 energy=-33.689036265919896 stress="9.42702266350056e-08 2.7768769857230735e-08 5.627243289933169e-09 2.7768769857230735e-08 8.616448930692218e-08 4.765249150788105e-09 5.627243289933169e-09 4.765249150788105e-09 -1.420751588778268e-07" free_energy=-33.689036265919896 pbc="T T T"
Si       8.64296741       1.49488106       5.59466239       4.18912894       0.12582829      -2.52361449       0.00000080      -0.00000016      -0.00000390
Si       6.66717774       2.21740249       4.45079916       1.90734772      -0.71991840       0.75613647       0.00000166      -0.00000043      -0.00000111
Si       4.75948029       0.71688721       4.95706902      -1.81296429      -0.72935852       2.52420467      -0.00000031      -0.00000215       0.00000235
Si       3.14462708      -1.09221669       4.28565400       3.32752804      -0.71561550       0.16111505       0.00000095       0.00000099       0.00000280
Si       6.99287043       2.50903108       2.09916573       0.20049611       2.64594097       0.13199884      -0.00000219       0.00000329      -0.00000161
Si       5.37801724       0.69992734       1.42775072      -1.17150955       2.42795614       0.85372457      -0.00000213      -0.00000188      -0.00000197
Si       3.47031966      -0.80058803       1.93402061      -3.43188058       0.05423369      -0.88414623       0.00000198       0.00000096       0.00000054
Si       1.49453009      -0.07806658       0.79015738      -3.20814640      -3.08906667      -1.01941887      -0.00000077      -0.00000062       0.00000290
8
Lattice="8.240696008215341 -0.07236060582805763 -1.2320063334107962 0.020164810139234875 3.928306548017289 -0.09584876475794389 -3.8384043360645066 0.1711104273951867 6.205328874967531" Properties=species:S:1:pos:R:3:momenta:R:3:forces:R:3 energy=-35.68342566011035 stress="1.301963846446778e-07 4.596671618964302e-09 -1.1040470514736472e-07 4.596671618964302e-09 6.624344997613258e-09 8.256333788447743e-09 -1.1040470514736472e-07 8.256333788447743e-09 6.601370252590025e-08" free_energy=-35.68342566011035 pbc="T T T"
Si      -0.58221497       0.61922450       4.04621815      -5.69683581       0.23518845      -0.54724191      -0.00000018      -0.00000001       0.00000023
Si      -1.20352830       2.55822669       2.83465790       1.83793411      -2.30930352      -5.71266500      -0.00000134      -0.00000053       0.00000185
Si      -1.39160561       2.76013754      11.07029127       2.28065070       2.92421719       1.16680061      -0.00000112      -0.00000027      -0.00000234
Si      -2.03308415       0.77083315       9.95457988       4.78862929       5.13136737       5.79882116       0.00000125       0.00000042       0.00000103
Si       0.99920170       2.64343586       6.79032382      -3.72988725      -2.97998224      -2.55100945      -0.00000039       0.00000008      -0.00000109
Si      -0.28117865       0.67567621       6.42319709       1.80041758       3.07367575      -1.12378835       0.00000040       0.00000017      -0.00000072
Si      -2.33412004       0.71438125       7.57760094       0.22270671      -3.03637438       0.83051962      -0.00000187      -0.00000098       0.00000016
Si      -3.59433572       2.67492808       7.11462543      -1.50361533      -3.03878863       2.13856334       0.00000325       0.00000112       0.00000088
