60
Lattice="3.684031499 0.0 0.0 0.0 3.684031499 0.0 0.0 0.0 3.684031499" Properties=species:S:1:pos:R:3:forces:R:3:stresses:R:6:energies:R:1 energy=-407.54870036408255 stress="-18.81598787164093 -3.425694500398988e-09 1.0142833698850312e-08 -3.425694500398988e-09 -22.588956627395916 0.45664760245033303 1.0142833698850312e-08 0.45664760245033303 -13.835137275322426" free_energy=-407.54870036408255 pbc="T T T"
Ar      -0.10781090       0.59478051       1.72194494      -0.00000004       0.00000002      -0.00000001      -0.37307550      -0.40863586      -0.14915175       0.02740888      -0.00574861      -0.01565767      -6.60165328
Ar       1.63861059       0.52627043       1.19081440      -0.00000003      -0.00000002       0.00000005      -0.57229476      -0.39813785      -0.35544709       0.04109445       0.08639651       0.18460556      -5.62432839
Ar       0.88711173       0.69893764       1.81268200      -0.00000004      -0.00000001      -0.00000003      -0.35446512      -0.36459202      -0.13894779      -0.03619042       0.12928628      -0.03879779      -6.78708772
Ar      -0.20844018       0.05437619       0.81893336       0.00000001       0.00000005      -0.00000004      -0.45699778      -0.36299170      -0.21098053       0.09335310      -0.01754974       0.01546198      -6.58974687
Ar       0.83664838      -1.09699449       0.19170279      -0.00000000       0.00000004      -0.00000001      -0.29425062      -0.40169727      -0.14216895       0.04701146      -0.01101026       0.13393579      -7.15872514
Ar       0.29609728      -1.71142829       0.86325219      -0.00000003       0.00000009       0.00000000      -0.31302472      -0.55391975      -0.33907933      -0.10506971      -0.10817648      -0.07893340      -6.24999947
Ar      -1.54591847       0.14221794       0.42910946      -0.00000009      -0.00000002      -0.00000002      -0.31302472      -0.55391975      -0.33907933      -0.10506971       0.10817649       0.07893340      -6.24999946
Ar      -1.04364727       0.52797379       1.27019553       0.00000006       0.00000006       0.00000003      -0.30331139      -0.33141390      -0.17045040      -0.00066073      -0.05297594      -0.04257749      -7.41584307
Ar      -0.44354322      -1.60900481      -1.30433606      -0.00000005      -0.00000007       0.00000017      -0.35042781      -0.36541705      -0.25884855       0.06140293      -0.02832298       0.07048614      -6.47323016
Ar       0.39570551      -1.17024646      -1.65232611       0.00000001       0.00000001      -0.00000004      -0.24911752      -0.38621859      -0.18471824       0.01294023       0.00497704      -0.06425906      -7.03474554
Ar       0.76194600      -0.69037873      -0.84309165       0.00000001       0.00000007       0.00000004      -0.29100898      -0.45197927      -0.27895104      -0.07054733       0.07660623      -0.09807820      -6.63338953
Ar      -1.76247475       0.79642148       2.19274513       0.00000006       0.00000017      -0.00000001      -0.22206067      -0.21598664      -0.13242570       0.19426793       0.03181601      -0.03011392      -7.69464981
Ar       1.64502490      -1.17654058      -0.48334095      -0.00000005       0.00000004      -0.00000001      -0.21909368      -0.43973878      -0.32239680      -0.02462321      -0.10849451      -0.10541992      -6.61425568
Ar       0.25456029       0.96498555       0.82645501       0.00000017      -0.00000018       0.00000012      -0.44327180      -0.57193336      -0.23108345      -0.09050342       0.07752799       0.08347509      -5.93834403
Ar      -0.35012640      -1.01461577       0.40125421      -0.00000002      -0.00000001      -0.00000007      -0.25878567      -0.28902538      -0.26325884       0.09248132      -0.05409074      -0.09748904      -7.25234397
Ar      -1.48679634      -1.78303677      -1.27785817       0.00000004      -0.00000001       0.00000002      -0.24456550      -0.15630630      -0.07689853       0.04611203      -0.06300685       0.01311638      -7.83219171
Ar       0.88763684      -1.70576011      -0.91009539       0.00000025       0.00000008      -0.00000003      -0.32180770      -0.40073885      -0.37633745      -0.05255378       0.14796852       0.08148095      -6.26189269
Ar      -0.48594122      -1.30778395       1.39740057      -0.00000000       0.00000007      -0.00000005      -0.08186072      -0.33855012      -0.22635636      -0.06767398       0.05387649       0.06752939      -7.55270035
Ar      -0.80481944       1.15839855       2.16873860      -0.00000007      -0.00000013      -0.00000008      -0.23411773      -0.34759833      -0.18214917      -0.10619134       0.05869171       0.02802014      -7.17365079
Ar      -0.95437891       0.13654976      -1.48157445      -0.00000002       0.00000015      -0.00000002      -0.32180771      -0.40073885      -0.37633745      -0.05255378      -0.14796852      -0.08148095      -6.26189270
Ar       0.79836848       1.58684736       0.02216612      -0.00000008       0.00000004      -0.00000007      -0.30331139      -0.33141390      -0.17045040      -0.00066073       0.05297594       0.04257749      -7.41584306
Ar      -0.95641068      -1.26385617      -0.48143540       0.00000005      -0.00000003       0.00000001      -0.17404254      -0.27501785      -0.15836867      -0.08476469       0.13149032       0.10662420      -7.69812789
Ar       0.30823863       0.67957074      -0.13703626      -0.00000008       0.00000003      -0.00000002      -0.24888519      -0.34618073      -0.27854787      -0.01428284      -0.12109262      -0.04072772      -6.85778761
Ar      -1.45941198      -0.83635590       0.26880666       0.00000004       0.00000015      -0.00000003      -0.38010014      -0.61932649      -0.39436720      -0.13429874       0.09169466      -0.04761465      -5.62597089
Ar       1.51252732      -1.03630154      -1.47503704       0.00000008      -0.00000001       0.00000001      -0.11402126      -0.17587079      -0.30402009       0.08163049       0.00981399       0.02375582      -7.81400894
Ar       1.10712977      -1.36279114       1.33287970       0.00000001      -0.00000007       0.00000001      -0.48857182      -0.41334480      -0.36548216       0.05761780      -0.05221696      -0.00780901      -5.87149420
Ar       1.39847252       0.03979446      -1.08733379      -0.00000002      -0.00000005      -0.00000006      -0.35042781      -0.36541705      -0.25884855       0.06140293       0.02832298      -0.07048614      -6.47323015
Ar      -0.20340515       1.58855072       0.10154725      -0.00000004       0.00000005      -0.00000012      -0.57229477      -0.39813785      -0.35544709       0.04109445      -0.08639651      -0.18460556      -5.62432838
Ar       0.29240788       1.54049542       1.79411181       0.00000002      -0.00000003      -0.00000005      -0.06251018      -0.29241674      -0.12624192      -0.00636396      -0.03131635      -0.00696115      -7.94693648
Ar       0.38260377      -0.73285445       1.02355499       0.00000003      -0.00000003       0.00000003      -0.38010014      -0.61932649      -0.39436721      -0.13429874      -0.09169466       0.04761465      -5.62597087
Ar      -1.44631024      -0.39896389      -0.73934374      -0.00000005       0.00000003       0.00000006      -0.24911752      -0.38621859      -0.18471824       0.01294023      -0.00497704       0.06425906      -7.03474555
Ar       0.07772041      -1.33730533      -0.46424448      -0.00000003       0.00000004      -0.00000005      -0.42622265      -0.31802335      -0.33314483       0.09824693       0.08557411      -0.01284962      -6.34353752
Ar      -1.08006975      -0.87883162      -1.54857820      -0.00000011       0.00000005      -0.00000011      -0.29100898      -0.45197927      -0.27895104      -0.07054733      -0.07660623       0.09807820      -6.63338953
Ar      -1.58745546       1.14983560       0.46590665      -0.00000009       0.00000003      -0.00000003      -0.44327180      -0.57193336      -0.23108345      -0.09050342      -0.07752799      -0.08347509      -5.93834402
Ar       0.80031311       0.14529205       0.77167954      -0.00000018       0.00000010      -0.00000002      -0.50086152      -0.46617752      -0.04621666       0.11471938       0.00311677       0.04981508      -6.30501056
Ar       1.49188935      -0.55459458       0.89110745       0.00000009      -0.00000006      -0.00000004      -0.25878567      -0.28902538      -0.26325884       0.09248132       0.05409074       0.09748904      -7.25234397
Ar       1.32272561       1.59620369       1.98628461       0.00000000       0.00000002      -0.00000000      -0.38311536      -0.35095527      -0.41813551      -0.05345483       0.05443373       0.05582307      -5.98643093
Ar      -0.32948843      -0.53290880      -0.91663281       0.00000010       0.00000002      -0.00000002      -0.11402126      -0.17587079      -0.30402010       0.08163049      -0.00981399      -0.02375582      -7.81400893
Ar      -1.54960787       0.57432573      -0.50175016      -0.00000001      -0.00000002       0.00000005      -0.06251018      -0.29241674      -0.12624192      -0.00636396       0.03131635       0.00696115      -7.94693649
Ar       1.63357557      -1.62358654       0.47342829       0.00000002       0.00000006       0.00000005      -0.45699778      -0.36299170      -0.21098053       0.09335309       0.01754974      -0.01546197      -6.58974686
Ar      -1.04170264      -1.71450240       0.52068211      -0.00000003      -0.00000002       0.00000009      -0.50086152      -0.46617752      -0.04621666       0.11471938      -0.00311677      -0.04981509      -6.30501055
Ar       0.35521941       0.21382643      -1.11381168       0.00000003      -0.00000016      -0.00000011      -0.24456550      -0.15630630      -0.07689853       0.04611203       0.06300685      -0.01311638      -7.83219171
Ar      -1.00536737      -0.47221586       1.10065886      -0.00000001      -0.00000000      -0.00000000      -0.29425062      -0.40169727      -0.14216895       0.04701146       0.01101026      -0.13393580      -7.15872514
Ar      -1.56825323      -1.26446085       1.33840033      -0.00000002       0.00000004       0.00000002      -0.27482850      -0.38061759      -0.11173871      -0.02101845      -0.07122815      -0.10174012      -7.16135691
Ar       1.29033953       0.71330717       0.10702441       0.00000009       0.00000006       0.00000003      -0.46154021      -0.44138344      -0.16199072       0.05158977      -0.05200847      -0.05709164      -6.35271301
Ar       1.03719631       0.95642260      -0.87637695       0.00000001       0.00000010       0.00000006      -0.23411773      -0.34759833      -0.18214917      -0.10619134      -0.05869171      -0.02802014      -7.17365077
Ar      -0.51929014       0.51861746      -0.69392296       0.00000001      -0.00000005      -0.00000001      -0.38311536      -0.35095527      -0.41813551      -0.05345483      -0.05443373      -0.05582307      -5.98643091
Ar      -0.69257553       0.75647498       0.29807921       0.00000007       0.00000003      -0.00000006      -0.30975686      -0.43028273      -0.17966431       0.07664453       0.05699359       0.00768430      -6.92219713
Ar       1.35607453      -0.26142640      -0.10503892      -0.00000005      -0.00000003      -0.00000004      -0.08186072      -0.33855013      -0.22635636      -0.06767398      -0.05387649      -0.06752939      -7.55270036
Ar       0.27376252      -0.30474950      -0.04603867       0.00000011      -0.00000002       0.00000005      -0.27482850      -0.38061759      -0.11173871      -0.02101846       0.07122815       0.10174012      -7.16135691
Ar      -0.95490402       1.41588351      -0.52032034       0.00000003       0.00000021      -0.00000007      -0.35446513      -0.36459202      -0.13894779      -0.03619042      -0.12928628       0.03879779      -6.78708771
Ar      -0.55167622       1.40151398       1.18533724      -0.00000004      -0.00000012      -0.00000001      -0.46154021      -0.44138344      -0.16199072       0.05158977       0.05200847       0.05709164      -6.35271302
Ar      -1.76429534      -0.23190501      -1.92742537       0.00000023      -0.00000023       0.00000004      -0.42622266      -0.31802335      -0.33314483       0.09824693      -0.08557411       0.01284962      -6.34353752
Ar      -0.19699085      -0.39266976      -1.90832890       0.00000001      -0.00000001       0.00000004      -0.21909368      -0.43973878      -0.32239680      -0.02462321       0.10849451       0.10541992      -6.61425567
Ar       1.14944022       1.35834617       0.99428244      -0.00000005      -0.00000010      -0.00000003      -0.30975685      -0.43028273      -0.17966431       0.07664453      -0.05699359      -0.00768430      -6.92219713
Ar       1.73420485       1.52004064      -0.42958329      -0.00000001      -0.00000006      -0.00000002      -0.37307551      -0.40863586      -0.14915175       0.02740888       0.00574861       0.01565767      -6.60165327
Ar       0.07954100       1.31839967      -0.90038347      -0.00000014      -0.00000016       0.00000011      -0.22206067      -0.21598664      -0.13242570       0.19426793      -0.03181601       0.03011392      -7.69464979
Ar      -0.73488598      -0.20641921      -0.04051805      -0.00000007      -0.00000030       0.00000016      -0.48857182      -0.41334480      -0.36548217       0.05761780       0.05221697       0.00780901      -5.87149419
Ar       0.88560507      -0.30535418      -1.91023445      -0.00000020       0.00000017       0.00000015      -0.17404255      -0.27501784      -0.15836867      -0.08476469      -0.13149032      -0.10662420      -7.69812789
Ar      -1.53377712       1.43525041       1.42939791       0.00000009      -0.00000001      -0.00000002      -0.24888519      -0.34618073      -0.27854787      -0.01428284       0.12109262       0.04072772      -6.85778760
