8
Lattice="8.240696008215341 -0.07236060582805763 -1.2320063334107962 0.020164810139234875 3.928306548017289 -0.09584876475794389 -3.8384043360645066 0.1711104273951867 6.205328874967531" Properties=species:S:1:pos:R:3:momenta:R:3:forces:R:3 energy=-35.68342566011035 stress="1.301963846446778e-07 4.596671618964302e-09 -1.1040470514736472e-07 4.596671618964302e-09 6.624344997613258e-09 8.256333788447743e-09 -1.1040470514736472e-07 8.256333788447743e-09 6.601370252590025e-08" free_energy=-35.68342566011035 pbc="T T T"
Si      -0.58221497       0.61922450       4.04621815      -5.69683581       0.23518845      -0.54724191      -0.00000018      -0.00000001       0.00000023
Si      -1.20352830       2.55822669       2.83465790       1.83793411      -2.30930352      -5.71266500      -0.00000134      -0.00000053       0.00000185
Si      -1.39160561       2.76013754      11.07029127       2.28065070       2.92421719       1.16680061      -0.00000112      -0.00000027      -0.00000234
Si      -2.03308415       0.77083315       9.95457988       4.78862929       5.13136737       5.79882116       0.00000125       0.00000042       0.00000103
Si       0.99920170       2.64343586       6.79032382      -3.72988725      -2.97998224      -2.55100945      -0.00000039       0.00000008      -0.00000109
Si      -0.28117865       0.67567621       6.42319709       1.80041758       3.07367575      -1.12378835       0.00000040       0.00000017      -0.00000072
Si      -2.33412004       0.71438125       7.57760094       0.22270671      -3.03637438       0.83051962      -0.00000187      -0.00000098       0.00000016
Si      -3.59433572       2.67492808       7.11462543      -1.50361533      -3.03878863       2.13856334       0.00000325       0.00000112       0.00000088
